                               Psi4 1.3.1 release

  ==> Input File <==

--------------------------------------------------------------------------
memory 12 gb
molecule meoh {
noreorient
nocom
0 1
C     0.8120    -0.5390     0.4940
C     2.1580    -0.0500    -0.0130
H    -0.0170    -0.0080     0.0090
H     0.6750    -1.6110     0.2990
H     0.7110    -0.3870     1.5760
H     2.9870    -0.5810     0.4720
H     2.2950     1.0210     0.1820
H     2.2590    -0.2030    -1.0950
}
set {
basis aug-cc-pV(D+d)Z
}
E,wfn = prop('PW6B95' , properties = ['GRID_ESP', 'GRID_FIELD'], return_wfn=True)
--------------------------------------------------------------------------

    Molecular point group: c1

    Geometry (in Angstrom), charge = 0, multiplicity = 1:

       Center              X                  Y                   Z               Mass
    ------------   -----------------  -----------------  -----------------  -----------------
         C            0.812000000000    -0.539000000000     0.494000000000    12.000000000000
         C            2.158000000000    -0.050000000000    -0.013000000000    12.000000000000
         H           -0.017000000000    -0.008000000000     0.009000000000     1.007825032230
         H            0.675000000000    -1.611000000000     0.299000000000     1.007825032230
         H            0.711000000000    -0.387000000000     1.576000000000     1.007825032230
         H            2.987000000000    -0.581000000000     0.472000000000     1.007825032230
         H            2.295000000000     1.021000000000     0.182000000000     1.007825032230
         H            2.259000000000    -0.203000000000    -1.095000000000     1.007825032230

  Charge       = 0
  Multiplicity = 1
  Basis Set: AUG-CC-PV(D+D)Z
    Blend: AUG-CC-PV(D+D)Z
  Basis Set: (AUG-CC-PV(D+D)Z AUX)
    Blend: AUG-CC-PVDZ-JKFIT

    Orbital Energies [Eh]
    ---------------------

    Doubly Occupied:

       1A    -10.294628     2A    -10.294368     3A     -0.776929
       4A     -0.634408     5A     -0.449555     6A     -0.449524
       7A     -0.383690     8A     -0.354804     9A     -0.354788

  @DF-RKS Final Energy:   -79.92949946328540

   => Energetics <=

    Nuclear Repulsion Energy =             42.2148224592800574
    One-Electron Energy =                -189.2245851624768989
    Two-Electron Energy =                  76.7728203311638708
    DFT Exchange-Correlation Energy =      -9.6925570912524428
    Empirical Dispersion Energy =           0.0000000000000000
    VV10 Nonlocal Energy =                  0.0000000000000000
    Total Energy =                        -79.9294994632853957

  Dipole Moment: [D]
     X:     0.0004      Y:     0.0005      Z:     0.0003     Total:     0.0007

*** Psi4 exiting successfully. Buy a developer a beer!
