                               Psi4 1.3.1 release

  ==> Input File <==

--------------------------------------------------------------------------
memory 12 gb
molecule meoh {
noreorient
nocom
0 1
C     1.1410    -2.7500     2.0750
C    -0.6360    -0.5880     3.3070
C     1.2180    -1.2370     2.0140
O    -0.0410    -0.6040     2.0390
H     0.7310    -3.1040     3.0280
H     0.5050    -3.1320     1.2670
H     2.1410    -3.1870     1.9630
H    -1.5560    -0.0000     3.2280
H     0.0220    -0.1150     4.0580
H    -0.8990    -1.5950     3.6700
H     1.6830    -0.9240     1.0710
H     1.8500    -0.8520     2.8360
}
set {
basis aug-cc-pV(D+d)Z
}
E,wfn = prop('PW6B95' , properties = ['GRID_ESP', 'GRID_FIELD'], return_wfn=True)
--------------------------------------------------------------------------

    Molecular point group: c1

    Geometry (in Angstrom), charge = 0, multiplicity = 1:

       Center              X                  Y                   Z               Mass
    ------------   -----------------  -----------------  -----------------  -----------------
         C            1.141000000000    -2.750000000000     2.075000000000    12.000000000000
         C           -0.636000000000    -0.588000000000     3.307000000000    12.000000000000
         C            1.218000000000    -1.237000000000     2.014000000000    12.000000000000
         O           -0.041000000000    -0.604000000000     2.039000000000    15.994914619570
         H            0.731000000000    -3.104000000000     3.028000000000     1.007825032230
         H            0.505000000000    -3.132000000000     1.267000000000     1.007825032230
         H            2.141000000000    -3.187000000000     1.963000000000     1.007825032230
         H           -1.556000000000     0.000000000000     3.228000000000     1.007825032230
         H            0.022000000000    -0.115000000000     4.058000000000     1.007825032230
         H           -0.899000000000    -1.595000000000     3.670000000000     1.007825032230
         H            1.683000000000    -0.924000000000     1.071000000000     1.007825032230
         H            1.850000000000    -0.852000000000     2.836000000000     1.007825032230

  Charge       = 0
  Multiplicity = 1
  Basis Set: AUG-CC-PV(D+D)Z
    Blend: AUG-CC-PV(D+D)Z
  Basis Set: (AUG-CC-PV(D+D)Z AUX)
    Blend: AUG-CC-PVDZ-JKFIT

    Orbital Energies [Eh]
    ---------------------

    Doubly Occupied:

       1A    -19.316212     2A    -10.350777     3A    -10.345723
       4A    -10.298210     5A     -1.071489     6A     -0.784233
       7A     -0.709549     8A     -0.621323     9A     -0.506390
      10A     -0.503313    11A     -0.471492    12A     -0.426109
      13A     -0.411934    14A     -0.391730    15A     -0.367682
      16A     -0.329422    17A     -0.275872

  @DF-RKS Final Energy:  -194.59234742398223

   => Energetics <=

    Nuclear Repulsion Energy =            135.2971441795855867
    One-Electron Energy =                -530.3454306014723443
    Two-Electron Energy =                 221.1141542269272975
    DFT Exchange-Correlation Energy =     -20.6582152290227832
    Empirical Dispersion Energy =           0.0000000000000000
    VV10 Nonlocal Energy =                  0.0000000000000000
    Total Energy =                       -194.5923474239822326

  Dipole Moment: [D]
     X:     0.5868      Y:    -0.6311      Z:     0.9638     Total:     1.2928

*** Psi4 exiting successfully. Buy a developer a beer!
