                               Psi4 1.3.1 release

  ==> Input File <==

--------------------------------------------------------------------------
memory 12 gb
molecule meoh {
noreorient
nocom
0 1
C     1.0280    -2.6450     2.1770
C     0.2150     0.8860     1.8220
C     1.2910    -1.1740     1.9710
O     0.0630    -0.4920     2.0060
H     0.5390    -2.8140     3.1440
H     0.3690    -3.0300     1.3900
H     1.9650    -3.2130     2.1560
H    -0.7800     1.3400     1.8630
H     0.6740     1.1220     0.8450
H     0.8450     1.3390     2.6090
H     1.7960    -0.9990     1.0020
H     1.9660    -0.7840     2.7560
}
set {
basis aug-cc-pV(D+d)Z
}
E,wfn = prop('PW6B95' , properties = ['GRID_ESP', 'GRID_FIELD'], return_wfn=True)
--------------------------------------------------------------------------

    Molecular point group: c1

    Geometry (in Angstrom), charge = 0, multiplicity = 1:

       Center              X                  Y                   Z               Mass
    ------------   -----------------  -----------------  -----------------  -----------------
         C            1.028000000000    -2.645000000000     2.177000000000    12.000000000000
         C            0.215000000000     0.886000000000     1.822000000000    12.000000000000
         C            1.291000000000    -1.174000000000     1.971000000000    12.000000000000
         O            0.063000000000    -0.492000000000     2.006000000000    15.994914619570
         H            0.539000000000    -2.814000000000     3.144000000000     1.007825032230
         H            0.369000000000    -3.030000000000     1.390000000000     1.007825032230
         H            1.965000000000    -3.213000000000     2.156000000000     1.007825032230
         H           -0.780000000000     1.340000000000     1.863000000000     1.007825032230
         H            0.674000000000     1.122000000000     0.845000000000     1.007825032230
         H            0.845000000000     1.339000000000     2.609000000000     1.007825032230
         H            1.796000000000    -0.999000000000     1.002000000000     1.007825032230
         H            1.966000000000    -0.784000000000     2.756000000000     1.007825032230

  Charge       = 0
  Multiplicity = 1
  Basis Set: AUG-CC-PV(D+D)Z
    Blend: AUG-CC-PV(D+D)Z
  Basis Set: (AUG-CC-PV(D+D)Z AUX)
    Blend: AUG-CC-PVDZ-JKFIT

    Orbital Energies [Eh]
    ---------------------

    Doubly Occupied:

       1A    -19.318099     2A    -10.351134     3A    -10.346562
       4A    -10.296133     5A     -1.075338     6A     -0.788677
       7A     -0.696827     8A     -0.627710     9A     -0.509339
      10A     -0.502425    11A     -0.473381    12A     -0.435709
      13A     -0.399333    14A     -0.378638    15A     -0.367000
      16A     -0.340044    17A     -0.277110

  @DF-RKS Final Energy:  -194.59444243273958

   => Energetics <=

    Nuclear Repulsion Energy =            134.0714051869419450
    One-Electron Energy =                -527.8948690499815939
    Two-Electron Energy =                 219.8861852543694511
    DFT Exchange-Correlation Energy =     -20.6571638240693822
    Empirical Dispersion Energy =           0.0000000000000000
    VV10 Nonlocal Energy =                  0.0000000000000000
    Total Energy =                       -194.5944424327395836

  Dipole Moment: [D]
     X:     1.0554      Y:     0.4324      Z:    -0.1551     Total:     1.1511

*** Psi4 exiting successfully. Buy a developer a beer!
